t 0.0446496 /NodeList/8/DeviceList/0/$ns3::WifiNetDevice/Phy/State/Tx DsssRate1Mbps ns3::WifiMacHeader (DATA ToDS=0, FromDS=0, MoreFrag=0, Retry=0, MoreData=0 Duration/ID=0us, DA=ff:ff:ff:ff:ff:ff, SA=00:00:00:00:00:09, BSSID=00:00:00:00:00:09, FragNumber=0, SeqNumber=0) ns3::LlcSnapHeader (type 0x800) ns3::Ipv4Header (tos 0x0 DSCP Default ECN Not-ECT ttl 1 id 0 protocol 17 offset (bytes) 0 flags [none] length: 48 192.168.0.9 > 192.168.0.255) ns3::UdpHeader (length: 28 698 > 698) ns3::olsr::PacketHeader (len: 20 seqNo: 0) ns3::olsr::MessageHeader (type: HELLO TTL: 1 Orig: 192.168.0.9 SeqNo: 0 Validity: 134 Hop count: 0 Size: 16 Interval: 5 (2s) Willingness: 3) ns3::WifiMacTrailer ()
r 0.0455136 DsssRate1Mbps/NodeList/1/DeviceList/0/$ns3::WifiNetDevice/Phy/State/RxOk ns3::WifiMacHeader (DATA ToDS=0, FromDS=0, MoreFrag=0, Retry=0, MoreData=0 Duration/ID=0us, DA=ff:ff:ff:ff:ff:ff, SA=00:00:00:00:00:09, BSSID=00:00:00:00:00:09, FragNumber=0, SeqNumber=0) ns3::LlcSnapHeader (type 0x800) ns3::Ipv4Header (tos 0x0 DSCP Default ECN Not-ECT ttl 1 id 0 protocol 17 offset (bytes) 0 flags [none] length: 48 192.168.0.9 > 192.168.0.255) ns3::UdpHeader (length: 28 698 > 698) ns3::olsr::PacketHeader (len: 20 seqNo: 0) ns3::olsr::MessageHeader (type: HELLO TTL: 1 Orig: 192.168.0.9 SeqNo: 0 Validity: 134 Hop count: 0 Size: 16 Interval: 5 (2s) Willingness: 3) ns3::WifiMacTrailer ()
r 0.0455136 DsssRate1Mbps/NodeList/3/DeviceList/0/$ns3::WifiNetDevice/Phy/State/RxOk ns3::WifiMacHeader (DATA ToDS=0, FromDS=0, MoreFrag=0, Retry=0, MoreData=0 Duration/ID=0us, DA=ff:ff:ff:ff:ff:ff, SA=00:00:00:00:00:09, BSSID=00:00:00:00:00:09, FragNumber=0, SeqNumber=0) ns3::LlcSnapHeader (type 0x800) ns3::Ipv4Header (tos 0x0 DSCP Default ECN Not-ECT ttl 1 id 0 protocol 17 offset (bytes) 0 flags [none] length: 48 192.168.0.9 > 192.168.0.255) ns3::UdpHeader (length: 28 698 > 698) ns3::olsr::PacketHeader (len: 20 seqNo: 0) ns3::olsr::MessageHeader (type: HELLO TTL: 1 Orig: 192.168.0.9 SeqNo: 0 Validity: 134 Hop count: 0 Size: 16 Interval: 5 (2s) Willingness: 3) ns3::WifiMacTrailer ()
r 0.0455136 DsssRate1Mbps/NodeList/4/DeviceList/0/$ns3::WifiNetDevice/Phy/State/RxOk ns3::WifiMacHeader (DATA ToDS=0, FromDS=0, MoreFrag=0, Retry=0, MoreData=0 Duration/ID=0us, DA=ff:ff:ff:ff:ff:ff, SA=00:00:00:00:00:09, BSSID=00:00:00:00:00:09, FragNumber=0, SeqNumber=0) ns3::LlcSnapHeader (type 0x800) ns3::Ipv4Header (tos 0x0 DSCP Default ECN Not-ECT ttl 1 id 0 protocol 17 offset (bytes) 0 flags [none] length: 48 192.168.0.9 > 192.168.0.255) ns3::UdpHeader (length: 28 698 > 698) ns3::olsr::PacketHeader (len: 20 seqNo: 0) ns3::olsr::MessageHeader (type: HELLO TTL: 1 Orig: 192.168.0.9 SeqNo: 0 Validity: 134 Hop count: 0 Size: 16 Interval: 5 (2s) Willingness: 3) ns3::WifiMacTrailer ()
r 0.0455136 DsssRate1Mbps/NodeList/10/DeviceList/0/$ns3::WifiNetDevice/Phy/State/RxOk ns3::WifiMacHeader (DATA ToDS=0, FromDS=0, MoreFrag=0, Retry=0, MoreData=0 Duration/ID=0us, DA=ff:ff:ff:ff:ff:ff, SA=00:00:00:00:00:09, BSSID=00:00:00:00:00:09, FragNumber=0, SeqNumber=0) ns3::LlcSnapHeader (type 0x800) ns3::Ipv4Header (tos 0x0 DSCP Default ECN Not-ECT ttl 1 id 0 protocol 17 offset (bytes) 0 flags [none] length: 48 192.168.0.9 > 192.168.0.255) ns3::UdpHeader (length: 28 698 > 698) ns3::olsr::PacketHeader (len: 20 seqNo: 0) ns3::olsr::MessageHeader (type: HELLO TTL: 1 Orig: 192.168.0.9 SeqNo: 0 Validity: 134 Hop count: 0 Size: 16 Interval: 5 (2s) Willingness: 3) ns3::WifiMacTrailer ()
r 0.0455136 DsssRate1Mbps/NodeList/17/DeviceList/0/$ns3::WifiNetDevice/Phy/State/RxOk ns3::WifiMacHeader (DATA ToDS=0, FromDS=0, MoreFrag=0, Retry=0, MoreData=0 Duration/ID=0us, DA=ff:ff:ff:ff:ff:ff, SA=00:00:00:00:00:09, BSSID=00:00:00:00:00:09, FragNumber=0, SeqNumber=0) ns3::LlcSnapHeader (type 0x800) ns3::Ipv4Header (tos 0x0 DSCP Default ECN Not-ECT ttl 1 id 0 protocol 17 offset (bytes) 0 flags [none] length: 48 192.168.0.9 > 192.168.0.255) ns3::UdpHeader (length: 28 698 > 698) ns3::olsr::PacketHeader (len: 20 seqNo: 0) ns3::olsr::MessageHeader (type: HELLO TTL: 1 Orig: 192.168.0.9 SeqNo: 0 Validity: 134 Hop count: 0 Size: 16 Interval: 5 (2s) Willingness: 3) ns3::WifiMacTrailer ()
r 0.0455136 DsssRate1Mbps/NodeList/19/DeviceList/0/$ns3::WifiNetDevice/Phy/State/RxOk ns3::WifiMacHeader (DATA ToDS=0, FromDS=0, MoreFrag=0, Retry=0, MoreData=0 Duration/ID=0us, DA=ff:ff:ff:ff:ff:ff, SA=00:00:00:00:00:09, BSSID=00:00:00:00:00:09, FragNumber=0, SeqNumber=0) ns3::LlcSnapHeader (type 0x800) ns3::Ipv4Header (tos 0x0 DSCP Default ECN Not-ECT ttl 1 id 0 protocol 17 offset (bytes) 0 flags [none] length: 48 192.168.0.9 > 192.168.0.255) ns3::UdpHeader (length: 28 698 > 698) ns3::olsr::PacketHeader (len: 20 seqNo: 0) ns3::olsr::MessageHeader (type: HELLO TTL: 1 Orig: 192.168.0.9 SeqNo: 0 Validity: 134 Hop count: 0 Size: 16 Interval: 5 (2s) Willingness: 3) ns3::WifiMacTrailer ()
r 0.0455136 DsssRate1Mbps/NodeList/0/DeviceList/0/$ns3::WifiNetDevice/Phy/State/RxOk ns3::WifiMacHeader (DATA ToDS=0, FromDS=0, MoreFrag=0, Retry=0, MoreData=0 Duration/ID=0us, DA=ff:ff:ff:ff:ff:ff, SA=00:00:00:00:00:09, BSSID=00:00:00:00:00:09, FragNumber=0, SeqNumber=0) ns3::LlcSnapHeader (type 0x800) ns3::Ipv4Header (tos 0x0 DSCP Default ECN Not-ECT ttl 1 id 0 protocol 17 offset (bytes) 0 flags [none] length: 48 192.168.0.9 > 192.168.0.255) ns3::UdpHeader (length: 28 698 > 698) ns3::olsr::PacketHeader (len: 20 seqNo: 0) ns3::olsr::MessageHeader (type: HELLO TTL: 1 Orig: 192.168.0.9 SeqNo: 0 Validity: 134 Hop count: 0 Size: 16 Interval: 5 (2s) Willingness: 3) ns3::WifiMacTrailer ()
r 0.0455136 DsssRate1Mbps/NodeList/2/DeviceList/0/$ns3::WifiNetDevice/Phy/State/RxOk ns3::WifiMacHeader (DATA ToDS=0, FromDS=0, MoreFrag=0, Retry=0, MoreData=0 Duration/ID=0us, DA=ff:ff:ff:ff:ff:ff, SA=00:00:00:00:00:09, BSSID=00:00:00:00:00:09, FragNumber=0, SeqNumber=0) ns3::LlcSnapHeader (type 0x800) ns3::Ipv4Header (tos 0x0 DSCP Default ECN Not-ECT ttl 1 id 0 protocol 17 offset (bytes) 0 flags [none] length: 48 192.168.0.9 > 192.168.0.255) ns3::UdpHeader (length: 28 698 > 698) ns3::olsr::PacketHeader (len: 20 seqNo: 0) ns3::olsr::MessageHeader (type: HELLO TTL: 1 Orig: 192.168.0.9 SeqNo: 0 Validity: 134 Hop count: 0 Size: 16 Interval: 5 (2s) Willingness: 3) ns3::WifiMacTrailer ()
r 0.0455136 DsssRate1Mbps/NodeList/5/DeviceList/0/$ns3::WifiNetDevice/Phy/State/RxOk ns3::WifiMacHeader (DATA ToDS=0, FromDS=0, MoreFrag=0, Retry=0, MoreData=0 Duration/ID=0us, DA=ff:ff:ff:ff:ff:ff, SA=00:00:00:00:00:09, BSSID=00:00:00:00:00:09, FragNumber=0, SeqNumber=0) ns3::LlcSnapHeader (type 0x800) ns3::Ipv4Header (tos 0x0 DSCP Default ECN Not-ECT ttl 1 id 0 protocol 17 offset (bytes) 0 flags [none] length: 48 192.168.0.9 > 192.168.0.255) ns3::UdpHeader (length: 28 698 > 698) ns3::olsr::PacketHeader (len: 20 seqNo: 0) ns3::olsr::MessageHeader (type: HELLO TTL: 1 Orig: 192.168.0.9 SeqNo: 0 Validity: 134 Hop count: 0 Size: 16 Interval: 5 (2s) Willingness: 3) ns3::WifiMacTrailer ()
r 0.0455136 DsssRate1Mbps/NodeList/6/DeviceList/0/$ns3::WifiNetDevice/Phy/State/RxOk ns3::WifiMacHeader (DATA ToDS=0, FromDS=0, MoreFrag=0, Retry=0, MoreData=0 Duration/ID=0us, DA=ff:ff:ff:ff:ff:ff, SA=00:00:00:00:00:09, BSSID=00:00:00:00:00:09, FragNumber=0, SeqNumber=0) ns3::LlcSnapHeader (type 0x800) ns3::Ipv4Header (tos 0x0 DSCP Default ECN Not-ECT ttl 1 id 0 protocol 17 offset (bytes) 0 flags [none] length: 48 192.168.0.9 > 192.168.0.255) ns3::UdpHeader (length: 28 698 > 698) ns3::olsr::PacketHeader (len: 20 seqNo: 0) ns3::olsr::MessageHeader (type: HELLO TTL: 1 Orig: 192.168.0.9 SeqNo: 0 Validity: 134 Hop count: 0 Size: 16 Interval: 5 (2s) Willingness: 3) ns3::WifiMacTrailer ()
r 0.0455136 DsssRate1Mbps/NodeList/7/DeviceList/0/$ns3::WifiNetDevice/Phy/State/RxOk ns3::WifiMacHeader (DATA ToDS=0, FromDS=0, MoreFrag=0, Retry=0, MoreData=0 Duration/ID=0us, DA=ff:ff:ff:ff:ff:ff, SA=00:00:00:00:00:09, BSSID=00:00:00:00:00:09, FragNumber=0, SeqNumber=0) ns3::LlcSnapHeader (type 0x800) ns3::Ipv4Header (tos 0x0 DSCP Default ECN Not-ECT ttl 1 id 0 protocol 17 offset (bytes) 0 flags [none] length: 48 192.168.0.9 > 192.168.0.255) ns3::UdpHeader (length: 28 698 > 698) ns3::olsr::PacketHeader (len: 20 seqNo: 0) ns3::olsr::MessageHeader (type: HELLO TTL: 1 Orig: 192.168.0.9 SeqNo: 0 Validity: 134 Hop count: 0 Size: 16 Interval: 5 (2s) Willingness: 3) ns3::WifiMacTrailer ()
r 0.0455136 DsssRate1Mbps/NodeList/9/DeviceList/0/$ns3::WifiNetDevice/Phy/State/RxOk ns3::WifiMacHeader (DATA ToDS=0, FromDS=0, MoreFrag=0, Retry=0, MoreData=0 Duration/ID=0us, DA=ff:ff:ff:ff:ff:ff, SA=00:00:00:00:00:09, BSSID=00:00:00:00:00:09, FragNumber=0, SeqNumber=0) ns3::LlcSnapHeader (type 0x800) ns3::Ipv4Header (tos 0x0 DSCP Default ECN Not-ECT ttl 1 id 0 protocol 17 offset (bytes) 0 flags [none] length: 48 192.168.0.9 > 192.168.0.255) ns3::UdpHeader (length: 28 698 > 698) ns3::olsr::PacketHeader (len: 20 seqNo: 0) ns3::olsr::MessageHeader (type: HELLO TTL: 1 Orig: 192.168.0.9 SeqNo: 0 Validity: 134 Hop count: 0 Size: 16 Interval: 5 (2s) Willingness: 3) ns3::WifiMacTrailer ()
r 0.0455136 DsssRate1Mbps/NodeList/11/DeviceList/0/$ns3::WifiNetDevice/Phy/State/RxOk ns3::WifiMacHeader (DATA ToDS=0, FromDS=0, MoreFrag=0, Retry=0, MoreData=0 Duration/ID=0us, DA=ff:ff:ff:ff:ff:ff, SA=00:00:00:00:00:09, BSSID=00:00:00:00:00:09, FragNumber=0, SeqNumber=0) ns3::LlcSnapHeader (type 0x800) ns3::Ipv4Header (tos 0x0 DSCP Default ECN Not-ECT ttl 1 id 0 protocol 17 offset (bytes) 0 flags [none] length: 48 192.168.0.9 > 192.168.0.255) ns3::UdpHeader (length: 28 698 > 698) ns3::olsr::PacketHeader (len: 20 seqNo: 0) ns3::olsr::MessageHeader (type: HELLO TTL: 1 Orig: 192.168.0.9 SeqNo: 0 Validity: 134 Hop count: 0 Size: 16 Interval: 5 (2s) Willingness: 3) ns3::WifiMacTrailer ()
r 0.0455136 DsssRate1Mbps/NodeList/12/DeviceList/0/$ns3::WifiNetDevice/Phy/State/RxOk ns3::WifiMacHeader (DATA ToDS=0, FromDS=0, MoreFrag=0, Retry=0, MoreData=0 Duration/ID=0us, DA=ff:ff:ff:ff:ff:ff, SA=00:00:00:00:00:09, BSSID=00:00:00:00:00:09, FragNumber=0, SeqNumber=0) ns3::LlcSnapHeader (type 0x800) ns3::Ipv4Header (tos 0x0 DSCP Default ECN Not-ECT ttl 1 id 0 protocol 17 offset (bytes) 0 flags [none] length: 48 192.168.0.9 > 192.168.0.255) ns3::UdpHeader (length: 28 698 > 698) ns3::olsr::PacketHeader (len: 20 seqNo: 0) ns3::olsr::MessageHeader (type: HELLO TTL: 1 Orig: 192.168.0.9 SeqNo: 0 Validity: 134 Hop count: 0 Size: 16 Interval: 5 (2s) Willingness: 3) ns3::WifiMacTrailer ()
r 0.0455136 DsssRate1Mbps/NodeList/13/DeviceList/0/$ns3::WifiNetDevice/Phy/State/RxOk ns3::WifiMacHeader (DATA ToDS=0, FromDS=0, MoreFrag=0, Retry=0, MoreData=0 Duration/ID=0us, DA=ff:ff:ff:ff:ff:ff, SA=00:00:00:00:00:09, BSSID=00:00:00:00:00:09, FragNumber=0, SeqNumber=0) ns3::LlcSnapHeader (type 0x800) ns3::Ipv4Header (tos 0x0 DSCP Default ECN Not-ECT ttl 1 id 0 protocol 17 offset (bytes) 0 flags [none] length: 48 192.168.0.9 > 192.168.0.255) ns3::UdpHeader (length: 28 698 > 698) ns3::olsr::PacketHeader (len: 20 seqNo: 0) ns3::olsr::MessageHeader (type: HELLO TTL: 1 Orig: 192.168.0.9 SeqNo: 0 Validity: 134 Hop count: 0 Size: 16 Interval: 5 (2s) Willingness: 3) ns3::WifiMacTrailer ()
r 0.0455136 DsssRate1Mbps/NodeList/14/DeviceList/0/$ns3::WifiNetDevice/Phy/State/RxOk ns3::WifiMacHeader (DATA ToDS=0, FromDS=0, MoreFrag=0, Retry=0, MoreData=0 Duration/ID=0us, DA=ff:ff:ff:ff:ff:ff, SA=00:00:00:00:00:09, BSSID=00:00:00:00:00:09, FragNumber=0, SeqNumber=0) ns3::LlcSnapHeader (type 0x800) ns3::Ipv4Header (tos 0x0 DSCP Default ECN Not-ECT ttl 1 id 0 protocol 17 offset (bytes) 0 flags [none] length: 48 192.168.0.9 > 192.168.0.255) ns3::UdpHeader (length: 28 698 > 698) ns3::olsr::PacketHeader (len: 20 seqNo: 0) ns3::olsr::MessageHeader (type: HELLO TTL: 1 Orig: 192.168.0.9 SeqNo: 0 Validity: 134 Hop count: 0 Size: 16 Interval: 5 (2s) Willingness: 3) ns3::WifiMacTrailer ()
r 0.0455136 DsssRate1Mbps/NodeList/15/DeviceList/0/$ns3::WifiNetDevice/Phy/State/RxOk ns3::WifiMacHeader (DATA ToDS=0, FromDS=0, MoreFrag=0, Retry=0, MoreData=0 Duration/ID=0us, DA=ff:ff:ff:ff:ff:ff, SA=00:00:00:00:00:09, BSSID=00:00:00:00:00:09, FragNumber=0, SeqNumber=0) ns3::LlcSnapHeader (type 0x800) ns3::Ipv4Header (tos 0x0 DSCP Default ECN Not-ECT ttl 1 id 0 protocol 17 offset (bytes) 0 flags [none] length: 48 192.168.0.9 > 192.168.0.255) ns3::UdpHeader (length: 28 698 > 698) ns3::olsr::PacketHeader (len: 20 seqNo: 0) ns3::olsr::MessageHeader (type: HELLO TTL: 1 Orig: 192.168.0.9 SeqNo: 0 Validity: 134 Hop count: 0 Size: 16 Interval: 5 (2s) Willingness: 3) ns3::WifiMacTrailer ()
r 0.0455136 DsssRate1Mbps/NodeList/16/DeviceList/0/$ns3::WifiNetDevice/Phy/State/RxOk ns3::WifiMacHeader (DATA ToDS=0, FromDS=0, MoreFrag=0, Retry=0, MoreData=0 Duration/ID=0us, DA=ff:ff:ff:ff:ff:ff, SA=00:00:00:00:00:09, BSSID=00:00:00:00:00:09, FragNumber=0, SeqNumber=0) ns3::LlcSnapHeader (type 0x800) ns3::Ipv4Header (tos 0x0 DSCP Default ECN Not-ECT ttl 1 id 0 protocol 17 offset (bytes) 0 flags [none] length: 48 192.168.0.9 > 192.168.0.255) ns3::UdpHeader (length: 28 698 > 698) ns3::olsr::PacketHeader (len: 20 seqNo: 0) ns3::olsr::MessageHeader (type: HELLO TTL: 1 Orig: 192.168.0.9 SeqNo: 0 Validity: 134 Hop count: 0 Size: 16 Interval: 5 (2s) Willingness: 3) ns3::WifiMacTrailer ()
r 0.0455136 DsssRate1Mbps/NodeList/18/DeviceList/0/$ns3::WifiNetDevice/Phy/State/RxOk ns3::WifiMacHeader (DATA ToDS=0, FromDS=0, MoreFrag=0, Retry=0, MoreData=0 Duration/ID=0us, DA=ff:ff:ff:ff:ff:ff, SA=00:00:00:00:00:09, BSSID=00:00:00:00:00:09, FragNumber=0, SeqNumber=0) ns3::LlcSnapHeader (type 0x800) ns3::Ipv4Header (tos 0x0 DSCP Default ECN Not-ECT ttl 1 id 0 protocol 17 offset (bytes) 0 flags [none] length: 48 192.168.0.9 > 192.168.0.255) ns3::UdpHeader (length: 28 698 > 698) ns3::olsr::PacketHeader (len: 20 seqNo: 0) ns3::olsr::MessageHeader (type: HELLO TTL: 1 Orig: 192.168.0.9 SeqNo: 0 Validity: 134 Hop count: 0 Size: 16 Interval: 5 (2s) Willingness: 3) ns3::WifiMacTrailer ()
t 0.047225 /NodeList/9/DeviceList/0/$ns3::WifiNetDevice/Phy/State/Tx DsssRate1Mbps ns3::WifiMacHeader (DATA ToDS=0, FromDS=0, MoreFrag=0, Retry=0, MoreData=0 Duration/ID=0us, DA=ff:ff:ff:ff:ff:ff, SA=00:00:00:00:00:0a, BSSID=00:00:00:00:00:0a, FragNumber=0, SeqNumber=0) ns3::LlcSnapHeader (type 0x800) ns3::Ipv4Header (tos 0x0 DSCP Default ECN Not-ECT ttl 1 id 0 protocol 17 offset (bytes) 0 flags [none] length: 48 192.168.0.10 > 192.168.0.255) ns3::UdpHeader (length: 28 698 > 698) ns3::olsr::PacketHeader (len: 20 seqNo: 0) ns3::olsr::MessageHeader (type: HELLO TTL: 1 Orig: 192.168.0.10 SeqNo: 0 Validity: 134 Hop count: 0 Size: 16 Interval: 5 (2s) Willingness: 3) ns3::WifiMacTrailer ()
r 0.048089 DsssRate1Mbps/NodeList/6/DeviceList/0/$ns3::WifiNetDevice/Phy/State/RxOk ns3::WifiMacHeader (DATA ToDS=0, FromDS=0, MoreFrag=0, Retry=0, MoreData=0 Duration/ID=0us, DA=ff:ff:ff:ff:ff:ff, SA=00:00:00:00:00:0a, BSSID=00:00:00:00:00:0a, FragNumber=0, SeqNumber=0) ns3::LlcSnapHeader (type 0x800) ns3::Ipv4Header (tos 0x0 DSCP Default ECN Not-ECT ttl 1 id 0 protocol 17 offset (bytes) 0 flags [none] length: 48 192.168.0.10 > 192.168.0.255) ns3::UdpHeader (length: 28 698 > 698) ns3::olsr::PacketHeader (len: 20 seqNo: 0) ns3::olsr::MessageHeader (type: HELLO TTL: 1 Orig: 192.168.0.10 SeqNo: 0 Validity: 134 Hop count: 0 Size: 16 Interval: 5 (2s) Willingness: 3) ns3::WifiMacTrailer ()
r 0.048089 DsssRate1Mbps/NodeList/0/DeviceList/0/$ns3::WifiNetDevice/Phy/State/RxOk ns3::WifiMacHeader (DATA ToDS=0, FromDS=0, MoreFrag=0, Retry=0, MoreData=0 Duration/ID=0us, DA=ff:ff:ff:ff:ff:ff, SA=00:00:00:00:00:0a, BSSID=00:00:00:00:00:0a, FragNumber=0, SeqNumber=0) ns3::LlcSnapHeader (type 0x800) ns3::Ipv4Header (tos 0x0 DSCP Default ECN Not-ECT ttl 1 id 0 protocol 17 offset (bytes) 0 flags [none] length: 48 192.168.0.10 > 192.168.0.255) ns3::UdpHeader (length: 28 698 > 698) ns3::olsr::PacketHeader (len: 20 seqNo: 0) ns3::olsr::MessageHeader (type: HELLO TTL: 1 Orig: 192.168.0.10 SeqNo: 0 Validity: 134 Hop count: 0 Size: 16 Interval: 5 (2s) Willingness: 3) ns3::WifiMacTrailer ()
r 0.048089 DsssRate1Mbps/NodeList/1/DeviceList/0/$ns3::WifiNetDevice/Phy/State/RxOk ns3::WifiMacHeader (DATA ToDS=0, FromDS=0, MoreFrag=0, Retry=0, MoreData=0 Duration/ID=0us, DA=ff:ff:ff:ff:ff:ff, SA=00:00:00:00:00:0a, BSSID=00:00:00:00:00:0a, FragNumber=0, SeqNumber=0) ns3::LlcSnapHeader (type 0x800) ns3::Ipv4Header (tos 0x0 DSCP Default ECN Not-ECT ttl 1 id 0 protocol 17 offset (bytes) 0 flags [none] length: 48 192.168.0.10 > 192.168.0.255) ns3::UdpHeader (length: 28 698 > 698) ns3::olsr::PacketHeader (len: 20 seqNo: 0) ns3::olsr::MessageHeader (type: HELLO TTL: 1 Orig: 192.168.0.10 SeqNo: 0 Validity: 134 Hop count: 0 Size: 16 Interval: 5 (2s) Willingness: 3) ns3::WifiMacTrailer ()
r 0.048089 DsssRate1Mbps/NodeList/2/DeviceList/0/$ns3::WifiNetDevice/Phy/State/RxOk ns3::WifiMacHeader (DATA ToDS=0, FromDS=0, MoreFrag=0, Retry=0, MoreData=0 Duration/ID=0us, DA=ff:ff:ff:ff:ff:ff, SA=00:00:00:00:00:0a, BSSID=00:00:00:00:00:0a, FragNumber=0, SeqNumber=0) ns3::LlcSnapHeader (type 0x800) ns3::Ipv4Header (tos 0x0 DSCP Default ECN Not-ECT ttl 1 id 0 protocol 17 offset (bytes) 0 flags [none] length: 48 192.168.0.10 > 192.168.0.255) ns3::UdpHeader (length: 28 698 > 698) ns3::olsr::PacketHeader (len: 20 seqNo: 0) ns3::olsr::MessageHeader (type: HELLO TTL: 1 Orig: 192.168.0.10 SeqNo: 0 Validity: 134 Hop count: 0 Size: 16 Interval: 5 (2s) Willingness: 3) ns3::WifiMacTrailer ()
r 0.048089 DsssRate1Mbps/NodeList/3/DeviceList/0/$ns3::WifiNetDevice/Phy/State/RxOk ns3::WifiMacHeader (DATA ToDS=0, FromDS=0, MoreFrag=0, Retry=0, MoreData=0 Duration/ID=0us, DA=ff:ff:ff:ff:ff:ff, SA=00:00:00:00:00:0a, BSSID=00:00:00:00:00:0a, FragNumber=0, SeqNumber=0) ns3::LlcSnapHeader (type 0x800) ns3::Ipv4Header (tos 0x0 DSCP Default ECN Not-ECT ttl 1 id 0 protocol 17 offset (bytes) 0 flags [none] length: 48 192.168.0.10 > 192.168.0.255) ns3::UdpHeader (length: 28 698 > 698) ns3::olsr::PacketHeader (len: 20 seqNo: 0) ns3::olsr::MessageHeader (type: HELLO TTL: 1 Orig: 192.168.0.10 SeqNo: 0 Validity: 134 Hop count: 0 Size: 16 Interval: 5 (2s) Willingness: 3) ns3::WifiMacTrailer ()
r 0.048089 DsssRate1Mbps/NodeList/4/DeviceList/0/$ns3::WifiNetDevice/Phy/State/RxOk ns3::WifiMacHeader (DATA ToDS=0, FromDS=0, MoreFrag=0, Retry=0, MoreData=0 Duration/ID=0us, DA=ff:ff:ff:ff:ff:ff, SA=00:00:00:00:00:0a, BSSID=00:00:00:00:00:0a, FragNumber=0, SeqNumber=0) ns3::LlcSnapHeader (type 0x800) ns3::Ipv4Header (tos 0x0 DSCP Default ECN Not-ECT ttl 1 id 0 protocol 17 offset (bytes) 0 flags [none] length: 48 192.168.0.10 > 192.168.0.255) ns3::UdpHeader (length: 28 698 > 698) ns3::olsr::PacketHeader (len: 20 seqNo: 0) ns3::olsr::MessageHeader (type: HELLO TTL: 1 Orig: 192.168.0.10 SeqNo: 0 Validity: 134 Hop count: 0 Size: 16 Interval: 5 (2s) Willingness: 3) ns3::WifiMacTrailer ()
r 0.048089 DsssRate1Mbps/NodeList/5/DeviceList/0/$ns3::WifiNetDevice/Phy/State/RxOk ns3::WifiMacHeader (DATA ToDS=0, FromDS=0, MoreFrag=0, Retry=0, MoreData=0 Duration/ID=0us, DA=ff:ff:ff:ff:ff:ff, SA=00:00:00:00:00:0a, BSSID=00:00:00:00:00:0a, FragNumber=0, SeqNumber=0) ns3::LlcSnapHeader (type 0x800) ns3::Ipv4Header (tos 0x0 DSCP Default ECN Not-ECT ttl 1 id 0 protocol 17 offset (bytes) 0 flags [none] length: 48 192.168.0.10 > 192.168.0.255) ns3::UdpHeader (length: 28 698 > 698) ns3::olsr::PacketHeader (len: 20 seqNo: 0) ns3::olsr::MessageHeader (type: HELLO TTL: 1 Orig: 192.168.0.10 SeqNo: 0 Validity: 134 Hop count: 0 Size: 16 Interval: 5 (2s) Willingness: 3) ns3::WifiMacTrailer ()
r 0.048089 DsssRate1Mbps/NodeList/7/DeviceList/0/$ns3::WifiNetDevice/Phy/State/RxOk ns3::WifiMacHeader (DATA ToDS=0, FromDS=0, MoreFrag=0, Retry=0, MoreData=0 Duration/ID=0us, DA=ff:ff:ff:ff:ff:ff, SA=00:00:00:00:00:0a, BSSID=00:00:00:00:00:0a, FragNumber=0, SeqNumber=0) ns3::LlcSnapHeader (type 0x800) ns3::Ipv4Header (tos 0x0 DSCP Default ECN Not-ECT ttl 1 id 0 protocol 17 offset (bytes) 0 flags [none] length: 48 192.168.0.10 > 192.168.0.255) ns3::UdpHeader (length: 28 698 > 698) ns3::olsr::PacketHeader (len: 20 seqNo: 0) ns3::olsr::MessageHeader (type: HELLO TTL: 1 Orig: 192.168.0.10 SeqNo: 0 Validity: 134 Hop count: 0 Size: 16 Interval: 5 (2s) Willingness: 3) ns3::WifiMacTrailer ()
r 0.048089 DsssRate1Mbps/NodeList/8/DeviceList/0/$ns3::WifiNetDevice/Phy/State/RxOk ns3::WifiMacHeader (DATA ToDS=0, FromDS=0, MoreFrag=0, Retry=0, MoreData=0 Duration/ID=0us, DA=ff:ff:ff:ff:ff:ff, SA=00:00:00:00:00:0a, BSSID=00:00:00:00:00:0a, FragNumber=0, SeqNumber=0) ns3::LlcSnapHeader (type 0x800) ns3::Ipv4Header (tos 0x0 DSCP Default ECN Not-ECT ttl 1 id 0 protocol 17 offset (bytes) 0 flags [none] length: 48 192.168.0.10 > 192.168.0.255) ns3::UdpHeader (length: 28 698 > 698) ns3::olsr::PacketHeader (len: 20 seqNo: 0) ns3::olsr::MessageHeader (type: HELLO TTL: 1 Orig: 192.168.0.10 SeqNo: 0 Validity: 134 Hop count: 0 Size: 16 Interval: 5 (2s) Willingness: 3) ns3::WifiMacTrailer ()
r 0.048089 DsssRate1Mbps/NodeList/10/DeviceList/0/$ns3::WifiNetDevice/Phy/State/RxOk ns3::WifiMacHeader (DATA ToDS=0, FromDS=0, MoreFrag=0, Retry=0, MoreData=0 Duration/ID=0us, DA=ff:ff:ff:ff:ff:ff, SA=00:00:00:00:00:0a, BSSID=00:00:00:00:00:0a, FragNumber=0, SeqNumber=0) ns3::LlcSnapHeader (type 0x800) ns3::Ipv4Header (tos 0x0 DSCP Default ECN Not-ECT ttl 1 id 0 protocol 17 offset (bytes) 0 flags [none] length: 48 192.168.0.10 > 192.168.0.255) ns3::UdpHeader (length: 28 698 > 698) ns3::olsr::PacketHeader (len: 20 seqNo: 0) ns3::olsr::MessageHeader (type: HELLO TTL: 1 Orig: 192.168.0.10 SeqNo: 0 Validity: 134 Hop count: 0 Size: 16 Interval: 5 (2s) Willingness: 3) ns3::WifiMacTrailer ()
r 0.048089 DsssRate1Mbps/NodeList/11/DeviceList/0/$ns3::WifiNetDevice/Phy/State/RxOk ns3::WifiMacHeader (DATA ToDS=0, FromDS=0, MoreFrag=0, Retry=0, MoreData=0 Duration/ID=0us, DA=ff:ff:ff:ff:ff:ff, SA=00:00:00:00:00:0a, BSSID=00:00:00:00:00:0a, FragNumber=0, SeqNumber=0) ns3::LlcSnapHeader (type 0x800) ns3::Ipv4Header (tos 0x0 DSCP Default ECN Not-ECT ttl 1 id 0 protocol 17 offset (bytes) 0 flags [none] length: 48 192.168.0.10 > 192.168.0.255) ns3::UdpHeader (length: 28 698 > 698) ns3::olsr::PacketHeader (len: 20 seqNo: 0) ns3::olsr::MessageHeader (type: HELLO TTL: 1 Orig: 192.168.0.10 SeqNo: 0 Validity: 134 Hop count: 0 Size: 16 Interval: 5 (2s) Willingness: 3) ns3::WifiMacTrailer ()
r 0.048089 DsssRate1Mbps/NodeList/12/DeviceList/0/$ns3::WifiNetDevice/Phy/State/RxOk ns3::WifiMacHeader (DATA ToDS=0, FromDS=0, MoreFrag=0, Retry=0, MoreData=0 Duration/ID=0us, DA=ff:ff:ff:ff:ff:ff, SA=00:00:00:00:00:0a, BSSID=00:00:00:00:00:0a, FragNumber=0, SeqNumber=0) ns3::LlcSnapHeader (type 0x800) ns3::Ipv4Header (tos 0x0 DSCP Default ECN Not-ECT ttl 1 id 0 protocol 17 offset (bytes) 0 flags [none] length: 48 192.168.0.10 > 192.168.0.255) ns3::UdpHeader (length: 28 698 > 698) ns3::olsr::PacketHeader (len: 20 seqNo: 0) ns3::olsr::MessageHeader (type: HELLO TTL: 1 Orig: 192.168.0.10 SeqNo: 0 Validity: 134 Hop count: 0 Size: 16 Interval: 5 (2s) Willingness: 3) ns3::WifiMacTrailer ()
r 0.048089 DsssRate1Mbps/NodeList/13/DeviceList/0/$ns3::WifiNetDevice/Phy/State/RxOk ns3::WifiMacHeader (DATA ToDS=0, FromDS=0, MoreFrag=0, Retry=0, MoreData=0 Duration/ID=0us, DA=ff:ff:ff:ff:ff:ff, SA=00:00:00:00:00:0a, BSSID=00:00:00:00:00:0a, FragNumber=0, SeqNumber=0) ns3::LlcSnapHeader (type 0x800) ns3::Ipv4Header (tos 0x0 DSCP Default ECN Not-ECT ttl 1 id 0 protocol 17 offset (bytes) 0 flags [none] length: 48 192.168.0.10 > 192.168.0.255) ns3::UdpHeader (length: 28 698 > 698) ns3::olsr::PacketHeader (len: 20 seqNo: 0) ns3::olsr::MessageHeader (type: HELLO TTL: 1 Orig: 192.168.0.10 SeqNo: 0 Validity: 134 Hop count: 0 Size: 16 Interval: 5 (2s) Willingness: 3) ns3::WifiMacTrailer ()
r 0.048089 DsssRate1Mbps/NodeList/14/DeviceList/0/$ns3::WifiNetDevice/Phy/State/RxOk ns3::WifiMacHeader (DATA ToDS=0, FromDS=0, MoreFrag=0, Retry=0, MoreData=0 Duration/ID=0us, DA=ff:ff:ff:ff:ff:ff, SA=00:00:00:00:00:0a, BSSID=00:00:00:00:00:0a, FragNumber=0, SeqNumber=0) ns3::LlcSnapHeader (type 0x800) ns3::Ipv4Header (tos 0x0 DSCP Default ECN Not-ECT ttl 1 id 0 protocol 17 offset (bytes) 0 flags [none] length: 48 192.168.0.10 > 192.168.0.255) ns3::UdpHeader (length: 28 698 > 698) ns3::olsr::PacketHeader (len: 20 seqNo: 0) ns3::olsr::MessageHeader (type: HELLO TTL: 1 Orig: 192.168.0.10 SeqNo: 0 Validity: 134 Hop count: 0 Size: 16 Interval: 5 (2s) Willingness: 3) ns3::WifiMacTrailer ()
r 0.048089 DsssRate1Mbps/NodeList/16/DeviceList/0/$ns3::WifiNetDevice/Phy/State/RxOk ns3::WifiMacHeader (DATA ToDS=0, FromDS=0, MoreFrag=0, Retry=0, MoreData=0 Duration/ID=0us, DA=ff:ff:ff:ff:ff:ff, SA=00:00:00:00:00:0a, BSSID=00:00:00:00:00:0a, FragNumber=0, SeqNumber=0) ns3::LlcSnapHeader (type 0x800) ns3::Ipv4Header (tos 0x0 DSCP Default ECN Not-ECT ttl 1 id 0 protocol 17 offset (bytes) 0 flags [none] length: 48 192.168.0.10 > 192.168.0.255) ns3::UdpHeader (length: 28 698 > 698) ns3::olsr::PacketHeader (len: 20 seqNo: 0) ns3::olsr::MessageHeader (type: HELLO TTL: 1 Orig: 192.168.0.10 SeqNo: 0 Validity: 134 Hop count: 0 Size: 16 Interval: 5 (2s) Willingness: 3) ns3::WifiMacTrailer ()
r 0.048089 DsssRate1Mbps/NodeList/17/DeviceList/0/$ns3::WifiNetDevice/Phy/State/RxOk ns3::WifiMacHeader (DATA ToDS=0, FromDS=0, MoreFrag=0, Retry=0, MoreData=0 Duration/ID=0us, DA=ff:ff:ff:ff:ff:ff, SA=00:00:00:00:00:0a, BSSID=00:00:00:00:00:0a, FragNumber=0, SeqNumber=0) ns3::LlcSnapHeader (type 0x800) ns3::Ipv4Header (tos 0x0 DSCP Default ECN Not-ECT ttl 1 id 0 protocol 17 offset (bytes) 0 flags [none] length: 48 192.168.0.10 > 192.168.0.255) ns3::UdpHeader (length: 28 698 > 698) ns3::olsr::PacketHeader (len: 20 seqNo: 0) ns3::olsr::MessageHeader (type: HELLO TTL: 1 Orig: 192.168.0.10 SeqNo: 0 Validity: 134 Hop count: 0 Size: 16 Interval: 5 (2s) Willingness: 3) ns3::WifiMacTrailer ()
r 0.048089 DsssRate1Mbps/NodeList/18/DeviceList/0/$ns3::WifiNetDevice/Phy/State/RxOk ns3::WifiMacHeader (DATA ToDS=0, FromDS=0, MoreFrag=0, Retry=0, MoreData=0 Duration/ID=0us, DA=ff:ff:ff:ff:ff:ff, SA=00:00:00:00:00:0a, BSSID=00:00:00:00:00:0a, FragNumber=0, SeqNumber=0) ns3::LlcSnapHeader (type 0x800) ns3::Ipv4Header (tos 0x0 DSCP Default ECN Not-ECT ttl 1 id 0 protocol 17 offset (bytes) 0 flags [none] length: 48 192.168.0.10 > 192.168.0.255) ns3::UdpHeader (length: 28 698 > 698) ns3::olsr::PacketHeader (len: 20 seqNo: 0) ns3::olsr::MessageHeader (type: HELLO TTL: 1 Orig: 192.168.0.10 SeqNo: 0 Validity: 134 Hop count: 0 Size: 16 Interval: 5 (2s) Willingness: 3) ns3::WifiMacTrailer ()
r 0.048089 DsssRate1Mbps/NodeList/19/DeviceList/0/$ns3::WifiNetDevice/Phy/State/RxOk ns3::WifiMacHeader (DATA ToDS=0, FromDS=0, MoreFrag=0, Retry=0, MoreData=0 Duration/ID=0us, DA=ff:ff:ff:ff:ff:ff, SA=00:00:00:00:00:0a, BSSID=00:00:00:00:00:0a, FragNumber=0, SeqNumber=0) ns3::LlcSnapHeader (type 0x800) ns3::Ipv4Header (tos 0x0 DSCP Default ECN Not-ECT ttl 1 id 0 protocol 17 offset (bytes) 0 flags [none] length: 48 192.168.0.10 > 192.168.0.255) ns3::UdpHeader (length: 28 698 > 698) ns3::olsr::PacketHeader (len: 20 seqNo: 0) ns3::olsr::MessageHeader (type: HELLO TTL: 1 Orig: 192.168.0.10 SeqNo: 0 Validity: 134 Hop count: 0 Size: 16 Interval: 5 (2s) Willingness: 3) ns3::WifiMacTrailer ()
r 0.048089 DsssRate1Mbps/NodeList/15/DeviceList/0/$ns3::WifiNetDevice/Phy/State/RxOk ns3::WifiMacHeader (DATA ToDS=0, FromDS=0, MoreFrag=0, Retry=0, MoreData=0 Duration/ID=0us, DA=ff:ff:ff:ff:ff:ff, SA=00:00:00:00:00:0a, BSSID=00:00:00:00:00:0a, FragNumber=0, SeqNumber=0) ns3::LlcSnapHeader (type 0x800) ns3::Ipv4Header (tos 0x0 DSCP Default ECN Not-ECT ttl 1 id 0 protocol 17 offset (bytes) 0 flags [none] length: 48 192.168.0.10 > 192.168.0.255) ns3::UdpHeader (length: 28 698 > 698) ns3::olsr::PacketHeader (len: 20 seqNo: 0) ns3::olsr::MessageHeader (type: HELLO TTL: 1 Orig: 192.168.0.10 SeqNo: 0 Validity: 134 Hop count: 0 Size: 16 Interval: 5 (2s) Willingness: 3) ns3::WifiMacTrailer ()
t 0.0577709 /NodeList/15/DeviceList/0/$ns3::WifiNetDevice/Phy/State/Tx DsssRate1Mbps ns3::WifiMacHeader (DATA ToDS=0, FromDS=0, MoreFrag=0, Retry=0, MoreData=0 Duration/ID=0us, DA=ff:ff:ff:ff:ff:ff, SA=00:00:00:00:00:10, BSSID=00:00:00:00:00:10, FragNumber=0, SeqNumber=0) ns3::LlcSnapHeader (type 0x800) ns3::Ipv4Header (tos 0x0 DSCP Default ECN Not-ECT ttl 1 id 0 protocol 17 offset (bytes) 0 flags [none] length: 48 192.168.0.16 > 192.168.0.255) ns3::UdpHeader (length: 28 698 > 698) ns3::olsr::PacketHeader (len: 20 seqNo: 0) ns3::olsr::MessageHeader (type: HELLO TTL: 1 Orig: 192.168.0.16 SeqNo: 0 Validity: 134 Hop count: 0 Size: 16 Interval: 5 (2s) Willingness: 3) ns3::WifiMacTrailer ()
r 0.0586349 DsssRate1Mbps/NodeList/0/DeviceList/0/$ns3::WifiNetDevice/Phy/State/RxOk ns3::WifiMacHeader (DATA ToDS=0, FromDS=0, MoreFrag=0, Retry=0, MoreData=0 Duration/ID=0us, DA=ff:ff:ff:ff:ff:ff, SA=00:00:00:00:00:10, BSSID=00:00:00:00:00:10, FragNumber=0, SeqNumber=0) ns3::LlcSnapHeader (type 0x800) ns3::Ipv4Header (tos 0x0 DSCP Default ECN Not-ECT ttl 1 id 0 protocol 17 offset (bytes) 0 flags [none] length: 48 192.168.0.16 > 192.168.0.255) ns3::UdpHeader (length: 28 698 > 698) ns3::olsr::PacketHeader (len: 20 seqNo: 0) ns3::olsr::MessageHeader (type: HELLO TTL: 1 Orig: 192.168.0.16 SeqNo: 0 Validity: 134 Hop count: 0 Size: 16 Interval: 5 (2s) Willingness: 3) ns3::WifiMacTrailer ()
r 0.0586349 DsssRate1Mbps/NodeList/1/DeviceList/0/$ns3::WifiNetDevice/Phy/State/RxOk ns3::WifiMacHeader (DATA ToDS=0, FromDS=0, MoreFrag=0, Retry=0, MoreData=0 Duration/ID=0us, DA=ff:ff:ff:ff:ff:ff, SA=00:00:00:00:00:10, BSSID=00:00:00:00:00:10, FragNumber=0, SeqNumber=0) ns3::LlcSnapHeader (type 0x800) ns3::Ipv4Header (tos 0x0 DSCP Default ECN Not-ECT ttl 1 id 0 protocol 17 offset (bytes) 0 flags [none] length: 48 192.168.0.16 > 192.168.0.255) ns3::UdpHeader (length: 28 698 > 698) ns3::olsr::PacketHeader (len: 20 seqNo: 0) ns3::olsr::MessageHeader (type: HELLO TTL: 1 Orig: 192.168.0.16 SeqNo: 0 Validity: 134 Hop count: 0 Size: 16 Interval: 5 (2s) Willingness: 3) ns3::WifiMacTrailer ()